PSF CHEQ EXT XPLOR

         1 !NTITLE


         8 !NATOM
         1 SYS      1        ACEY     C1       CG331   -0.370000       12.0110           
         2 SYS      1        ACEY     C2       CG2O3    0.620000       12.0110           
         3 SYS      1        ACEY     H1       HGA3     0.090000        1.0080           
         4 SYS      1        ACEY     H2       HGA3     0.090000        1.0080           
         5 SYS      1        ACEY     H3       HGA3     0.090000        1.0080           
         6 SYS      1        ACEY     O1       OG2D2   -0.760000       15.9994           
         7 SYS      1        ACEY     O2       OG2D2   -0.760000       15.9994           
         8 SYS      1        ACEY     LPA      LQ       0.000000        0.0000           

         6 !NBOND: bonds
         1         2         1         3         1         4         1         5
         2         6         2         7

         9 !NTHETA: angles
         2         1         3         2         1         4         2         1         5
         3         1         4         3         1         5         4         1         5
         1         2         6         1         2         7         6         2         7

         6 !NPHI: dihedrals
         3         1         2         6         3         1         2         7
         4         1         2         6         4         1         2         7
         5         1         2         6         5         1         2         7

         1 !NIMPHI: impropers
         1         6         7         2

         0 !NDON: donors


         0 !NACC: acceptors


         0 !NNB

         0         0         0         0         0         0         0         0

         1         0 !NGRP NST2
         0         1         0

         2 !MOLNT
         1         1         1         1         1         1         1         2

         0         0 !NUMLP NUMLPH

         0 !NCRTERM: cross-terms

