PSF CHEQ EXT XPLOR

         1 !NTITLE


        13 !NATOM
         1 SYS      1        BENX     CG       CG2R61  -0.115000       12.0110           
         2 SYS      1        BENX     HG       HGR61    0.115000        1.0080           
         3 SYS      1        BENX     CD1      CG2R61  -0.115000       12.0110           
         4 SYS      1        BENX     HD1      HGR61    0.115000        1.0080           
         5 SYS      1        BENX     CD2      CG2R61  -0.115000       12.0110           
         6 SYS      1        BENX     HD2      HGR61    0.115000        1.0080           
         7 SYS      1        BENX     CE1      CG2R61  -0.115000       12.0110           
         8 SYS      1        BENX     HE1      HGR61    0.115000        1.0080           
         9 SYS      1        BENX     CE2      CG2R61  -0.115000       12.0110           
        10 SYS      1        BENX     HE2      HGR61    0.115000        1.0080           
        11 SYS      1        BENX     CZ       CG2R61  -0.115000       12.0110           
        12 SYS      1        BENX     HZ       HGR61    0.115000        1.0080           
        13 SYS      1        BENX     LPA      LP       0.000000        0.0000           

        12 !NBOND: bonds
         1         2         1         3         1         5         3         4
         3         7         5         6         5         9         7         8
         7        11         9        10         9        11        11        12

        18 !NTHETA: angles
         2         1         3         2         1         5         3         1         5
         1         3         4         1         3         7         4         3         7
         1         5         6         1         5         9         6         5         9
         3         7         8         3         7        11         8         7        11
         5         9        10         5         9        11        10         9        11
         7        11         9         7        11        12         9        11        12

        24 !NPHI: dihedrals
         2         1         3         4         2         1         3         7
         5         1         3         4         5         1         3         7
         2         1         5         6         2         1         5         9
         3         1         5         6         3         1         5         9
         1         3         7         8         1         3         7        11
         4         3         7         8         4         3         7        11
         1         5         9        10         1         5         9        11
         6         5         9        10         6         5         9        11
         3         7        11         9         3         7        11        12
         8         7        11         9         8         7        11        12
         5         9        11         7         5         9        11        12
        10         9        11         7        10         9        11        12

         0 !NIMPHI: impropers


         0 !NDON: donors


         0 !NACC: acceptors


         0 !NNB

         0         0         0         0         0         0         0         0
         0         0         0         0         0

         1         0 !NGRP NST2
         0         1         0

         2 !MOLNT
         1         1         1         1         1         1         1         1
         1         1         1         1         2

         0         0 !NUMLP NUMLPH

         0 !NCRTERM: cross-terms

