PSF CHEQ EXT XPLOR

         1 !NTITLE


         6 !NATOM
         1 SYS      1        FORM     HA       HGR52    0.080000        1.0080           
         2 SYS      1        FORM     C        CG2O1    0.420000       12.0110           
         3 SYS      1        FORM     N        NG2S2   -0.690000       14.0070           
         4 SYS      1        FORM     HC       HGP1     0.350000        1.0080           
         5 SYS      1        FORM     HT       HGP1     0.350000        1.0080           
         6 SYS      1        FORM     O        OG2D1   -0.510000       15.9994           

         5 !NBOND: bonds
         1         2         2         3         2         6         3         4
         3         5

         6 !NTHETA: angles
         1         2         3         1         2         6         3         2         6
         2         3         4         2         3         5         4         3         5

         4 !NPHI: dihedrals
         1         2         3         4         1         2         3         5
         6         2         3         4         6         2         3         5

         1 !NIMPHI: impropers
         1         6         3         2

         0 !NDON: donors


         0 !NACC: acceptors


         0 !NNB

         0         0         0         0         0         0

         1         0 !NGRP NST2
         0         1         0

         1 !MOLNT
         1         1         1         1         1         1

         0         0 !NUMLP NUMLPH

         0 !NCRTERM: cross-terms

