PSF EXT CMAP DRUDE XPLOR AUTOG

         3 !NTITLE
* GENERATE ALL 9 GCMC MOLECULES WITH DRUDE PARTICLES USING 2024A FORCE FIELD    
* UNIFIED GENERATION SCRIPT FOR CONSISTENT PARAMETERS                           
*  DATE:     6/29/25      4:12: 6      CREATED BY USER: zhaomt                  

        15 !NATOM
         1 DME      1        DMEE     C1       CD33E     2.28990       11.6110           0  -1.79800       1.07400    
         2 DME      1        DMEE     DC1      DRUD     -2.32690      0.400000           0   0.00000       0.00000    
         3 DME      1        DMEE     H11      HDA3A    0.510000E-01   1.00800           0   0.00000       0.00000    
         4 DME      1        DMEE     H12      HDA3A    0.510000E-01   1.00800           0   0.00000       0.00000    
         5 DME      1        DMEE     H13      HDA3A    0.510000E-01   1.00800           0   0.00000       0.00000    
         6 DME      1        DMEE     O2       OD30A     1.45710       15.5994           0 -0.705000       1.31200    
         7 DME      1        DMEE     DO2      DRUD     -1.45710      0.400000           0   0.00000       0.00000    
         8 DME      1        DMEE     C3       CD33E     2.28990       11.6110           0  -1.79800       1.07400    
         9 DME      1        DMEE     DC3      DRUD     -2.32690      0.400000           0   0.00000       0.00000    
        10 DME      1        DMEE     H31      HDA3A    0.510000E-01   1.00800           0   0.00000       0.00000    
        11 DME      1        DMEE     H32      HDA3A    0.510000E-01   1.00800           0   0.00000       0.00000    
        12 DME      1        DMEE     H33      HDA3A    0.510000E-01   1.00800           0   0.00000       0.00000    
        13 DME      1        DMEE     LP2A     LPD     -0.116000       0.00000          -1   0.00000       0.00000    
        14 DME      1        DMEE     LP2B     LPD     -0.116000       0.00000          -1   0.00000       0.00000    
        15 DME      1        DMEE     LPX      LPD       0.00000       0.00000          -1   0.00000       0.00000    

        14 !NBOND: bonds
         1         2         6         7         8         9         1         6
         6         8         1         3         1         4         1         5
         8        10         8        11         8        12         6        13
         6        14         6        15

        13 !NTHETA: angles
         3         1         4         3         1         5         3         1         6
         4         1         5         4         1         6         5         1         6
         1         6         8         6         8        10         6         8        11
         6         8        12        10         8        11        10         8        12
        11         8        12

         6 !NPHI: dihedrals
         1         6         8        10         1         6         8        11
         1         6         8        12         3         1         6         8
         4         1         6         8         5         1         6         8

         0 !NIMPHI: impropers


         0 !NDON: donors


         0 !NACC: acceptors


         0 !NNB

         0         0         0         0         0         0         0         0
         0         0         0         0         0         0         0

         1         0 !NGRP NST2
         0         1         0

         3        12 !NUMLP NUMLPH
         3         1   F -0.350000       110.000       90.0000    
         3         5   F -0.350000       110.000       270.000    
         3         9   F -0.100000       0.00000       0.00000    
        13         6         1         8        14         6         1         8
        15         6         1         8

         1 !NUMANISO
             0.00000      -153.395       62.4930    
         6        15        13        14

         0 !NCRTERM: cross-terms


         0 !AUTOGEN
         0        15         0         0         0         0        15         0
        15         0         0         0        15        15        15
         0         0         0         0         0         0         0         0
         0         0         0         0         0         0
