PSF CHEQ EXT XPLOR

         1 !NTITLE


         9 !NATOM
         1 SYS      1        DMEE     C1       CG331   -0.100000       12.0110           
         2 SYS      1        DMEE     H11      HGA3     0.090000        1.0080           
         3 SYS      1        DMEE     H12      HGA3     0.090000        1.0080           
         4 SYS      1        DMEE     H13      HGA3     0.090000        1.0080           
         5 SYS      1        DMEE     O2       OG301   -0.340000       15.9994           
         6 SYS      1        DMEE     C3       CG331   -0.100000       12.0110           
         7 SYS      1        DMEE     H31      HGA3     0.090000        1.0080           
         8 SYS      1        DMEE     H32      HGA3     0.090000        1.0080           
         9 SYS      1        DMEE     H33      HGA3     0.090000        1.0080           

         8 !NBOND: bonds
         1         2         1         3         1         4         1         5
         5         6         6         7         6         8         6         9

        13 !NTHETA: angles
         2         1         3         2         1         4         2         1         5
         3         1         4         3         1         5         4         1         5
         1         5         6         5         6         7         5         6         8
         5         6         9         7         6         8         7         6         9
         8         6         9

         6 !NPHI: dihedrals
         2         1         5         6         3         1         5         6
         4         1         5         6         1         5         6         7
         1         5         6         8         1         5         6         9

         0 !NIMPHI: impropers


         0 !NDON: donors


         0 !NACC: acceptors


         0 !NNB

         0         0         0         0         0         0         0         0
         0

         1         0 !NGRP NST2
         0         1         0

         1 !MOLNT
         1         1         1         1         1         1         1         1
         1

         0         0 !NUMLP NUMLPH

         0 !NCRTERM: cross-terms

