PSF EXT CMAP DRUDE XPLOR AUTOG

         3 !NTITLE
* GENERATE ALL 9 GCMC MOLECULES WITH DRUDE PARTICLES USING 2024A FORCE FIELD    
* UNIFIED GENERATION SCRIPT FOR CONSISTENT PARAMETERS                           
*  DATE:     6/29/25      4:12: 6      CREATED BY USER: zhaomt                  

        11 !NATOM
         1 FOR      1        FORM     C        CD2O1C    1.86010       11.6110           0 -0.707000      0.326000    
         2 FOR      1        FORM     DC       DRUD     -1.45910      0.400000           0   0.00000       0.00000    
         3 FOR      1        FORM     HA       HDP1C    0.440000E-01   1.00800           0   0.00000       0.00000    
         4 FOR      1        FORM     O        OD2C1D    1.47660       15.5994           0 -0.724000      0.307000    
         5 FOR      1        FORM     DO       DRUD     -1.47660      0.400000           0   0.00000       0.00000    
         6 FOR      1        FORM     LPA      LPDO1   -0.298000       0.00000          -1   0.00000       0.00000    
         7 FOR      1        FORM     LPB      LPDO1   -0.214000       0.00000          -1   0.00000       0.00000    
         8 FOR      1        FORM     N        ND2A1     1.91140       13.6070           0  -1.94700      0.251000    
         9 FOR      1        FORM     DN       DRUD     -2.42140      0.400000           0   0.00000       0.00000    
        10 FOR      1        FORM     HC       HDP1A    0.307000       1.00800           0   0.00000       0.00000    
        11 FOR      1        FORM     HT       HDP1A    0.270000       1.00800           0   0.00000       0.00000    

        10 !NBOND: bonds
         1         2         4         5         8         9         1         4
         1         3         1         8         8        10         8        11
         4         6         4         7

         6 !NTHETA: angles
         3         1         4         3         1         8         4         1         8
         1         8        10         1         8        11        10         8        11

         4 !NPHI: dihedrals
         3         1         8        10         3         1         8        11
         4         1         8        10         4         1         8        11

         1 !NIMPHI: impropers
         1         8         4         3

         0 !NDON: donors


         0 !NACC: acceptors


         0 !NNB

         0         0         0         0         0         0         0         0
         0         0         0

         1         0 !NGRP NST2
         0         1         0

         2         8 !NUMLP NUMLPH
         3         1   F  0.300000       91.0000       0.00000    
         3         5   F  0.300000       91.0000       180.000    
         6         4         1         3         7         4         1         3

         2 !NUMANISO
             109.499      -78.3477       1.00200    
             171.520      -5.76438      -43.3790    
         4         1         6         7         8         1        10        11

         0 !NCRTERM: cross-terms


         0 !AUTOGEN
         0        15         0         0        15        15        15         0
        15         0         0
         0         0         0         0         0         0         0         0
         0         0
