PSF CHEQ EXT XPLOR

         1 !NTITLE


         9 !NATOM
         1 SYS      1        IMIA     CG       CG2R51  -0.050000       12.0110           
         2 SYS      1        IMIA     HG       HGR52    0.090000        1.0080           
         3 SYS      1        IMIA     CD2      CG2R51   0.220000       12.0110           
         4 SYS      1        IMIA     HD2      HGR52    0.100000        1.0080           
         5 SYS      1        IMIA     ND1      NG2R51  -0.360000       14.0070           
         6 SYS      1        IMIA     HD1      HGP1     0.320000        1.0080           
         7 SYS      1        IMIA     CE1      CG2R53   0.250000       12.0110           
         8 SYS      1        IMIA     HE1      HGR52    0.130000        1.0080           
         9 SYS      1        IMIA     NE2      NG2R50  -0.700000       14.0070           

         9 !NBOND: bonds
         1         2         1         3         1         5         3         9
         3         4         5         6         5         7         7         9
         7         8

        13 !NTHETA: angles
         2         1         3         2         1         5         3         1         5
         9         3         1         9         3         4         1         3         4
         1         5         6         1         5         7         6         5         7
         9         7         5         9         7         8         5         7         8
         3         9         7

        16 !NPHI: dihedrals
         2         1         3         9         2         1         3         4
         5         1         3         9         5         1         3         4
         2         1         5         6         2         1         5         7
         3         1         5         6         3         1         5         7
         1         3         9         7         4         3         9         7
         1         5         7         9         1         5         7         8
         6         5         7         9         6         5         7         8
         5         7         9         3         8         7         9         3

         0 !NIMPHI: impropers


         0 !NDON: donors


         0 !NACC: acceptors


         0 !NNB

         0         0         0         0         0         0         0         0
         0

         1         0 !NGRP NST2
         0         1         0

         1 !MOLNT
         1         1         1         1         1         1         1         1
         1

         0         0 !NUMLP NUMLPH

         0 !NCRTERM: cross-terms

