PSF EXT CMAP DRUDE XPLOR AUTOG

         3 !NTITLE
* GENERATE ALL 9 GCMC MOLECULES WITH DRUDE PARTICLES USING 2024A FORCE FIELD    
* UNIFIED GENERATION SCRIPT FOR CONSISTENT PARAMETERS                           
*  DATE:     6/29/25      4:12: 6      CREATED BY USER: zhaomt                  

        16 !NATOM
         1 IMI      1        IMID     CG       CD2R5A    1.99590       11.6110           0  -1.63200      0.949000    
         2 IMI      1        IMID     DCG      DRUD     -2.21690      0.400000           0   0.00000       0.00000    
         3 IMI      1        IMID     HG       HDR5A    0.174000       1.00800           0   0.00000       0.00000    
         4 IMI      1        IMID     CD2      CD2R5A    2.23680       11.6110           0  -1.62600      0.949000    
         5 IMI      1        IMID     DCD2     DRUD     -2.21280      0.400000           0   0.00000       0.00000    
         6 IMI      1        IMID     HD2      HDR5A    0.600000E-01   1.00800           0   0.00000       0.00000    
         7 IMI      1        IMID     ND1      ND2R5A    1.86710       13.6070           0  -1.39300      0.670000    
         8 IMI      1        IMID     DND1     DRUD     -2.04810      0.400000           0   0.00000       0.00000    
         9 IMI      1        IMID     HD1      HDP1A    0.283000       1.00800           0   0.00000       0.00000    
        10 IMI      1        IMID     CE1      CD2R5B    2.30590       11.6110           0  -1.63200       1.56800    
        11 IMI      1        IMID     DCE1     DRUD     -2.21690      0.400000           0   0.00000       0.00000    
        12 IMI      1        IMID     HE1      HDR5B    0.102000       1.00800           0   0.00000       0.00000    
        13 IMI      1        IMID     NE2      ND2R5B    1.77310       13.6070           0  -1.04400      0.788000    
        14 IMI      1        IMID     DNE2     DRUD     -1.77310      0.400000           0   0.00000       0.00000    
        15 IMI      1        IMID     LP1      LPD     -0.330000       0.00000          -1   0.00000       0.00000    
        16 IMI      1        IMID     LPA      LP5N      0.00000       0.00000          -1   0.00000       0.00000    

        15 !NBOND: bonds
         1         2         4         5         7         8        10        11
        13        14        13         4         7         1        10         7
         1         3        13        10         4         1         7         9
         4         6        10        12        13        15

        13 !NTHETA: angles
         3         1         4         3         1         7         4         1         7
         1         4         6         1         4        13         6         4        13
         1         7         9         1         7        10         9         7        10
         7        10        12         7        10        13        12        10        13
         4        13        10

        16 !NPHI: dihedrals
         1         4        13        10         1         7        10        12
         1         7        10        13         3         1         4         6
         3         1         4        13         3         1         7         9
         3         1         7        10         4         1         7         9
         4         1         7        10         4        13        10         7
         4        13        10        12         6         4         1         7
         6         4        13        10         7         1         4        13
         9         7        10        12         9         7        10        13

         8 !NIMPHI: impropers
         7         1        10         9         7        10         1         9
         4         1        13         6         4        13         1         6
        10         7        13        12        10        13         7        12
         1         4         7         3         1         7         4         3

         0 !NDON: donors


         0 !NACC: acceptors


         0 !NNB

         0         0         0         0         0         0         0         0
         0         0         0         0         0         0         0         0

         1         0 !NGRP NST2
         0         1         0

         2         8 !NUMLP NUMLPH
         3         1   F  -1.17300       0.00000       0.00000    
         3         5   F -0.350000       179.990       179.990    
        16         7         1        10        15        13        10         4

         1 !NUMANISO
            0.227374E-12  -257.540       118.812    
        13        15        10         4

         0 !NCRTERM: cross-terms


         0 !AUTOGEN
         0        15         0         0        15         0         0        15
         0         0        15         0         0        15        15        15
         0         0         0         0         0         0         0         0
         0         0         0         0         0         0         0
