PSF EXT CMAP DRUDE XPLOR AUTOG

         3 !NTITLE
* GENERATE ALL 9 GCMC MOLECULES WITH DRUDE PARTICLES USING 2024A FORCE FIELD    
* UNIFIED GENERATION SCRIPT FOR CONSISTENT PARAMETERS                           
*  DATE:     6/29/25      4:12: 6      CREATED BY USER: zhaomt                  

        11 !NATOM
         1 MAM      1        MAM1     N1       ND3A2     2.13960       13.6070           0  -1.45000       1.05500    
         2 MAM      1        MAM1     DN1      DRUD     -2.08960      0.400000           0   0.00000       0.00000    
         3 MAM      1        MAM1     HN1      HDP1A    0.192000       1.00800           0   0.00000       0.00000    
         4 MAM      1        MAM1     HN2      HDP1A    0.192000       1.00800           0   0.00000       0.00000    
         5 MAM      1        MAM1     C1       CD33A     1.66590       11.6110           0  -1.30700      0.855000    
         6 MAM      1        MAM1     DC1      DRUD     -1.98390      0.400000           0   0.00000       0.00000    
         7 MAM      1        MAM1     H11      HDA3A    0.104000       1.00800           0   0.00000       0.00000    
         8 MAM      1        MAM1     H12      HDA3A    0.104000       1.00800           0   0.00000       0.00000    
         9 MAM      1        MAM1     H13      HDA3A    0.104000       1.00800           0   0.00000       0.00000    
        10 MAM      1        MAM1     LPD1     LPD     -0.428000       0.00000          -1   0.00000       0.00000    
        11 MAM      1        MAM1     LPX      LPD       0.00000       0.00000          -1   0.00000       0.00000    

        10 !NBOND: bonds
         1         2         5         6         1         5         1         3
         1         4         5         7         5         8         5         9
         1        10         1        11

         9 !NTHETA: angles
         3         1         4         3         1         5         4         1         5
         1         5         7         1         5         8         1         5         9
         7         5         8         7         5         9         8         5         9

         6 !NPHI: dihedrals
         3         1         5         7         3         1         5         8
         3         1         5         9         4         1         5         7
         4         1         5         8         4         1         5         9

         0 !NIMPHI: impropers


         0 !NDON: donors


         0 !NACC: acceptors


         0 !NNB

         0         0         0         0         0         0         0         0
         0         0         0

         1         0 !NGRP NST2
         0         1         0

         2         8 !NUMLP NUMLPH
         3         1   F -0.605000       0.00000       0.00000    
         3         5   F  0.280000       105.420       180.000    
        11         1         3         4        10         1        11         5

         1 !NUMANISO
             133.690       21.6450      -45.4545    
         1         5         3         4

         0 !NCRTERM: cross-terms


         0 !AUTOGEN
         0        15         0         0         0        15         0         0
         0        15        15
         0         0         0         0         0         0         0         0
         0         0
