PSF CHEQ EXT XPLOR

         1 !NTITLE


         9 !NATOM
         1 SYS      1        MAMY     CE       CG334    0.160000       12.0110           
         2 SYS      1        MAMY     NZ       NG3P3   -0.300000       14.0070           
         3 SYS      1        MAMY     HE1      HGA3     0.050000        1.0080           
         4 SYS      1        MAMY     HE2      HGA3     0.050000        1.0080           
         5 SYS      1        MAMY     HE3      HGA3     0.050000        1.0080           
         6 SYS      1        MAMY     HZ1      HGP2     0.330000        1.0080           
         7 SYS      1        MAMY     HZ2      HGP2     0.330000        1.0080           
         8 SYS      1        MAMY     HZ3      HGP2     0.330000        1.0080           
         9 SYS      1        MAMY     LPA      LQ       0.000000        0.0000           

         7 !NBOND: bonds
         1         2         1         3         1         4         1         5
         2         6         2         7         2         8

        12 !NTHETA: angles
         2         1         3         2         1         4         2         1         5
         3         1         4         3         1         5         4         1         5
         1         2         6         1         2         7         1         2         8
         6         2         7         6         2         8         7         2         8

         9 !NPHI: dihedrals
         3         1         2         6         3         1         2         7
         3         1         2         8         4         1         2         6
         4         1         2         7         4         1         2         8
         5         1         2         6         5         1         2         7
         5         1         2         8

         0 !NIMPHI: impropers


         0 !NDON: donors


         0 !NACC: acceptors


         0 !NNB

         0         0         0         0         0         0         0         0
         0

         1         0 !NGRP NST2
         0         2         0

         2 !MOLNT
         1         1         1         1         1         1         1         1
         2

         0         0 !NUMLP NUMLPH

         0 !NCRTERM: cross-terms

