PSF CHEQ EXT XPLOR

         1 !NTITLE


         6 !NATOM
         1 SYS      1        MEOH     CB       CG331   -0.040000       12.0110           
         2 SYS      1        MEOH     OG       OG311   -0.650000       15.9994           
         3 SYS      1        MEOH     HG1      HGP1     0.420000        1.0080           
         4 SYS      1        MEOH     HB1      HGA3     0.090000        1.0080           
         5 SYS      1        MEOH     HB2      HGA3     0.090000        1.0080           
         6 SYS      1        MEOH     HB3      HGA3     0.090000        1.0080           

         5 !NBOND: bonds
         1         2         1         4         1         5         1         6
         2         3

         7 !NTHETA: angles
         2         1         4         2         1         5         2         1         6
         4         1         5         4         1         6         5         1         6
         1         2         3

         3 !NPHI: dihedrals
         4         1         2         3         5         1         2         3
         6         1         2         3

         0 !NIMPHI: impropers


         0 !NDON: donors


         0 !NACC: acceptors


         0 !NNB

         0         0         0         0         0         0

         1         0 !NGRP NST2
         0         1         0

         1 !MOLNT
         1         1         1         1         1         1

         0         0 !NUMLP NUMLPH

         0 !NCRTERM: cross-terms

