PSF CHEQ EXT XPLOR

         1 !NTITLE tests/data/mols/prpx.psf


        12 !NATOM
         1 SYS      1        PRPX     H11      HGA3     0.090000        1.0080           
         2 SYS      1        PRPX     H12      HGA3     0.090000        1.0080           
         3 SYS      1        PRPX     H13      HGA3     0.090000        1.0080           
         4 SYS      1        PRPX     C1       CG331   -0.270000       12.0110           
         5 SYS      1        PRPX     C2       CG321   -0.180000       12.0110           
         6 SYS      1        PRPX     H21      HGA2     0.090000        1.0080           
         7 SYS      1        PRPX     H22      HGA2     0.090000        1.0080           
         8 SYS      1        PRPX     H31      HGA3     0.090000        1.0080           
         9 SYS      1        PRPX     H32      HGA3     0.090000        1.0080           
        10 SYS      1        PRPX     H33      HGA3     0.090000        1.0080           
        11 SYS      1        PRPX     C3       CG331   -0.270000       12.0110           
        12 SYS      1        PRPX     LPA      LP       0.000000        0.0000           

        10 !NBOND: bonds
         1         4         2         4         3         4         4         5
         5         6         5         7         5        11         8        11
         9        11        10        11

        18 !NTHETA: angles
         1         4         2         1         4         3         1         4         5
         2         4         3         2         4         5         3         4         5
         4         5         6         4         5         7         4         5        11
         6         5         7         6         5        11         7         5        11
         5        11         8         5        11         9         5        11        10
         8        11         9         8        11        10         9        11        10

        18 !NPHI: dihedrals
         1         4         5         6         1         4         5         7
         1         4         5        11         2         4         5         6
         2         4         5         7         2         4         5        11
         3         4         5         6         3         4         5         7
         3         4         5        11         4         5        11         8
         4         5        11         9         4         5        11        10
         6         5        11         8         6         5        11         9
         6         5        11        10         7         5        11         8
         7         5        11         9         7         5        11        10

         0 !NIMPHI: impropers


         0 !NDON: donors


         0 !NACC: acceptors


         0 !NNB

         0         0         0         0         0         0         0         0
         0         0         0         0

         1         0 !NGRP NST2
         0         1         0

         2 !MOLNT
         1         1         1         1         1         1         1         1
         1         1         1         2

         0         0 !NUMLP NUMLPH

         0 !NCRTERM: cross-terms

