PSF EXT CMAP DRUDE XPLOR AUTOG

         3 !NTITLE
* GENERATE ALL 9 GCMC MOLECULES WITH DRUDE PARTICLES USING 2024A FORCE FIELD    
* UNIFIED GENERATION SCRIPT FOR CONSISTENT PARAMETERS                           
*  DATE:     6/29/25      4:12: 6      CREATED BY USER: zhaomt                  

        14 !NATOM
         1 PR1      1        PRPA     C1       CD33A     2.30820       11.6110           0  -2.05100       1.30000    
         2 PR1      1        PRPA     DC1      DRUD     -2.48520      0.400000           0   0.00000       0.00000    
         3 PR1      1        PRPA     H11      HDA3A    0.590000E-01   1.00800           0   0.00000       0.00000    
         4 PR1      1        PRPA     H12      HDA3A    0.590000E-01   1.00800           0   0.00000       0.00000    
         5 PR1      1        PRPA     H13      HDA3A    0.590000E-01   1.00800           0   0.00000       0.00000    
         6 PR1      1        PRPA     C2       CD32A     2.07980       11.6110           0  -1.66000       1.30000    
         7 PR1      1        PRPA     DC2      DRUD     -2.23580      0.400000           0   0.00000       0.00000    
         8 PR1      1        PRPA     H21      HDA2A    0.780000E-01   1.00800           0   0.00000       0.00000    
         9 PR1      1        PRPA     H22      HDA2A    0.780000E-01   1.00800           0   0.00000       0.00000    
        10 PR1      1        PRPA     C3       CD33A     2.30820       11.6110           0  -2.05100       1.30000    
        11 PR1      1        PRPA     DC3      DRUD     -2.48520      0.400000           0   0.00000       0.00000    
        12 PR1      1        PRPA     H31      HDA3A    0.590000E-01   1.00800           0   0.00000       0.00000    
        13 PR1      1        PRPA     H32      HDA3A    0.590000E-01   1.00800           0   0.00000       0.00000    
        14 PR1      1        PRPA     H33      HDA3A    0.590000E-01   1.00800           0   0.00000       0.00000    

        13 !NBOND: bonds
         1         2         6         7        10        11         1         3
         1         4         1         5         1         6         6         8
         6         9         6        10        10        12        10        13
        10        14

        18 !NTHETA: angles
         3         1         4         3         1         5         3         1         6
         4         1         5         4         1         6         5         1         6
         1         6         8         1         6         9         1         6        10
         8         6         9         8         6        10         9         6        10
         6        10        12         6        10        13         6        10        14
        12        10        13        12        10        14        13        10        14

        18 !NPHI: dihedrals
         1         6        10        12         1         6        10        13
         1         6        10        14         3         1         6         8
         3         1         6         9         3         1         6        10
         4         1         6         8         4         1         6         9
         4         1         6        10         5         1         6         8
         5         1         6         9         5         1         6        10
         8         6        10        12         8         6        10        13
         8         6        10        14         9         6        10        12
         9         6        10        13         9         6        10        14

         0 !NIMPHI: impropers


         0 !NDON: donors


         0 !NACC: acceptors


         0 !NNB

         0         0         0         0         0         0         0         0
         0         0         0         0         0         0

         3         0 !NGRP NST2
         0         1         0         5         1         0         9         1         0

         0         0 !NUMLP NUMLPH

         0 !NUMANISO

         0 !NCRTERM: cross-terms


         0 !AUTOGEN
         0        15         0         0         0         0        15         0
         0         0        15         0         0         0
         0         0         0         0         0         0         0         0
         0         0         0         0         0
