PSF EXT CMAP DRUDE XPLOR AUTOG

         3 !NTITLE
* GENERATE ALL 9 GCMC MOLECULES WITH DRUDE PARTICLES USING 2024A FORCE FIELD    
* UNIFIED GENERATION SCRIPT FOR CONSISTENT PARAMETERS                           
*  DATE:     6/29/25      4:12: 6      CREATED BY USER: zhaomt                  

         5 !NATOM
         1 WAT      1        SWHL     OH2      ODWHL     1.66260       15.5994           0  -1.03170       1.30000    
         2 WAT      1        SWHL     DOH2     DWOHL    -1.76260      0.400000           0   0.00000       0.00000    
         3 WAT      1        SWHL     OM       LPDWHL  -0.957100       0.00000          -1   0.00000       0.00000    
         4 WAT      1        SWHL     H1       HDWHL    0.528550       1.00800           0   0.00000       0.00000    
         5 WAT      1        SWHL     H2       HDWHL    0.528550       1.00800           0   0.00000       0.00000    

         5 !NBOND: bonds
         1         2         1         4         1         5         1         3
         4         5

         1 !NTHETA: angles
         4         1         5

         0 !NPHI: dihedrals


         0 !NIMPHI: impropers


         0 !NDON: donors


         1 !NACC: acceptors
         1         0

         0 !NNB

         0         0         0         0         0

         1         0 !NGRP NST2
         0         1         0

         1         4 !NUMLP NUMLPH
         3         1   F -0.217000       0.00000       0.00000    
         3         1         4         5

         0 !NUMANISO

         0 !NCRTERM: cross-terms


         0 !AUTOGEN
       111        15       111       111       111
         0         0         0         0         0
